LAMMPS (2 Aug 2023 - Update 1)
Lattice spacing in x,y,z = 3.0320061 3.0320061 3.0320061
Created orthogonal box = (0 0 0) to (9.0960182 9.0960182 9.0960182)
  1 by 1 by 1 MPI processor grid
Created 54 atoms
  using lattice units in orthogonal box = (0 0 0) to (9.0960182 9.0960182 9.0960182)
  create_atoms CPU = 0.000 seconds
Neighbor list info ...
  update: every = 1 steps, delay = 0 steps, check = no
  max neighbors/atom: 2000, page size: 100000
  master list distance cutoff = 5.30053
  ghost atom cutoff = 5.30053
  binsize = 2.650265, bins = 4 4 4
  2 neighbor lists, perpetual/occasional/extra = 2 0 0
  (1) pair afromeamxa, perpetual
      attributes: full, newton on, cut 3.82078
      pair build: full/bin/atomonly
      stencil: full/bin/3d
      bin: standard
  (2) pair eam/alloy, perpetual
      attributes: half, newton on
      pair build: half/bin/atomonly/newton
      stencil: half/bin/3d
      bin: standard
Setting up Verlet run ...
  Unit style    : metal
  Current step  : 0
  Time step     : 0.001
j,k = 434 558
rij = 0 0 3.03201
dij = 3.03201
rik = 1.516 1.516 1.516
dik = 2.62579
u3jik = -0.00311584
j,k = 434 535
rij = 0 0 3.03201
dij = 3.03201
rik = -1.516 1.516 1.516
dik = 2.62579
u3jik = -0.00311584
j,k = 434 478
rij = 0 0 3.03201
dij = 3.03201
rik = 1.516 -1.516 1.516
dik = 2.62579
u3jik = -0.00311584
j,k = 434 435
rij = 0 0 3.03201
dij = 3.03201
rik = -1.516 -1.516 1.516
dik = 2.62579
u3jik = -0.00311584
j,k = 434 198
rij = 0 0 3.03201
dij = 3.03201
rik = 0 3.03201 0
dik = 3.03201
u3jik = -0
j,k = 434 244
rij = 0 0 3.03201
dij = 3.03201
rik = 1.516 1.516 -1.516
dik = 2.62579
u3jik = -0.00311584
j,k = 434 199
rij = 0 0 3.03201
dij = 3.03201
rik = -1.516 1.516 -1.516
dik = 2.62579
u3jik = -0.00311584
j,k = 434 91
rij = 0 0 3.03201
dij = 3.03201
rik = 3.03201 0 0
dik = 3.03201
u3jik = -0
j,k = 434 92
rij = 0 0 3.03201
dij = 3.03201
rik = 1.516 -1.516 -1.516
dik = 2.62579
u3jik = -0.00311584
j,k = 434 1
rij = 0 0 3.03201
dij = 3.03201
rik = -1.516 -1.516 -1.516
dik = 2.62579
u3jik = -0.00311584
j,k = 434 2
rij = 0 0 3.03201
dij = 3.03201
rik = -3.03201 0 0
dik = 3.03201
u3jik = -0
j,k = 434 6
rij = 0 0 3.03201
dij = 3.03201
rik = 0 -3.03201 0
dik = 3.03201
u3jik = -0
j,k = 558 535
rij = 1.516 1.516 1.516
dij = 2.62579
rik = -1.516 1.516 1.516
dik = 2.62579
u3jik = -0.000407407
j,k = 558 478
rij = 1.516 1.516 1.516
dij = 2.62579
rik = 1.516 -1.516 1.516
dik = 2.62579
u3jik = -0.000407407
j,k = 558 435
rij = 1.516 1.516 1.516
dij = 2.62579
rik = -1.516 -1.516 1.516
dik = 2.62579
u3jik = -0.000407407
j,k = 558 198
rij = 1.516 1.516 1.516
dij = 2.62579
rik = 0 3.03201 0
dik = 3.03201
u3jik = -0.00311584
j,k = 558 244
rij = 1.516 1.516 1.516
dij = 2.62579
rik = 1.516 1.516 -1.516
dik = 2.62579
u3jik = -0.000407407
j,k = 558 199
rij = 1.516 1.516 1.516
dij = 2.62579
rik = -1.516 1.516 -1.516
dik = 2.62579
u3jik = -0.000407407
j,k = 558 91
rij = 1.516 1.516 1.516
dij = 2.62579
rik = 3.03201 0 0
dik = 3.03201
u3jik = -0.00311584
j,k = 558 92
rij = 1.516 1.516 1.516
dij = 2.62579
rik = 1.516 -1.516 -1.516
dik = 2.62579
u3jik = -0.000407407
j,k = 558 1
rij = 1.516 1.516 1.516
dij = 2.62579
rik = -1.516 -1.516 -1.516
dik = 2.62579
u3jik = -0.033
j,k = 558 2
rij = 1.516 1.516 1.516
dij = 2.62579
rik = -3.03201 0 0
dik = 3.03201
u3jik = -0.00311584
j,k = 558 6
rij = 1.516 1.516 1.516
dij = 2.62579
rik = 0 -3.03201 0
dik = 3.03201
u3jik = -0.00311584
j,k = 535 478
rij = -1.516 1.516 1.516
dij = 2.62579
rik = 1.516 -1.516 1.516
dik = 2.62579
u3jik = -0.000407407
j,k = 535 435
rij = -1.516 1.516 1.516
dij = 2.62579
rik = -1.516 -1.516 1.516
dik = 2.62579
u3jik = -0.000407407
j,k = 535 198
rij = -1.516 1.516 1.516
dij = 2.62579
rik = 0 3.03201 0
dik = 3.03201
u3jik = -0.00311584
j,k = 535 244
rij = -1.516 1.516 1.516
dij = 2.62579
rik = 1.516 1.516 -1.516
dik = 2.62579
u3jik = -0.000407407
j,k = 535 199
rij = -1.516 1.516 1.516
dij = 2.62579
rik = -1.516 1.516 -1.516
dik = 2.62579
u3jik = -0.000407407
j,k = 535 91
rij = -1.516 1.516 1.516
dij = 2.62579
rik = 3.03201 0 0
dik = 3.03201
u3jik = -0.00311584
j,k = 535 92
rij = -1.516 1.516 1.516
dij = 2.62579
rik = 1.516 -1.516 -1.516
dik = 2.62579
u3jik = -0.033
j,k = 535 1
rij = -1.516 1.516 1.516
dij = 2.62579
rik = -1.516 -1.516 -1.516
dik = 2.62579
u3jik = -0.000407407
j,k = 535 2
rij = -1.516 1.516 1.516
dij = 2.62579
rik = -3.03201 0 0
dik = 3.03201
u3jik = -0.00311584
j,k = 535 6
rij = -1.516 1.516 1.516
dij = 2.62579
rik = 0 -3.03201 0
dik = 3.03201
u3jik = -0.00311584
j,k = 478 435
rij = 1.516 -1.516 1.516
dij = 2.62579
rik = -1.516 -1.516 1.516
dik = 2.62579
u3jik = -0.000407407
j,k = 478 198
rij = 1.516 -1.516 1.516
dij = 2.62579
rik = 0 3.03201 0
dik = 3.03201
u3jik = -0.00311584
j,k = 478 244
rij = 1.516 -1.516 1.516
dij = 2.62579
rik = 1.516 1.516 -1.516
dik = 2.62579
u3jik = -0.000407407
j,k = 478 199
rij = 1.516 -1.516 1.516
dij = 2.62579
rik = -1.516 1.516 -1.516
dik = 2.62579
u3jik = -0.033
j,k = 478 91
rij = 1.516 -1.516 1.516
dij = 2.62579
rik = 3.03201 0 0
dik = 3.03201
u3jik = -0.00311584
j,k = 478 92
rij = 1.516 -1.516 1.516
dij = 2.62579
rik = 1.516 -1.516 -1.516
dik = 2.62579
u3jik = -0.000407407
j,k = 478 1
rij = 1.516 -1.516 1.516
dij = 2.62579
rik = -1.516 -1.516 -1.516
dik = 2.62579
u3jik = -0.000407407
j,k = 478 2
rij = 1.516 -1.516 1.516
dij = 2.62579
rik = -3.03201 0 0
dik = 3.03201
u3jik = -0.00311584
j,k = 478 6
rij = 1.516 -1.516 1.516
dij = 2.62579
rik = 0 -3.03201 0
dik = 3.03201
u3jik = -0.00311584
j,k = 435 198
rij = -1.516 -1.516 1.516
dij = 2.62579
rik = 0 3.03201 0
dik = 3.03201
u3jik = -0.00311584
j,k = 435 244
rij = -1.516 -1.516 1.516
dij = 2.62579
rik = 1.516 1.516 -1.516
dik = 2.62579
u3jik = -0.033
j,k = 435 199
rij = -1.516 -1.516 1.516
dij = 2.62579
rik = -1.516 1.516 -1.516
dik = 2.62579
u3jik = -0.000407407
j,k = 435 91
rij = -1.516 -1.516 1.516
dij = 2.62579
rik = 3.03201 0 0
dik = 3.03201
u3jik = -0.00311584
j,k = 435 92
rij = -1.516 -1.516 1.516
dij = 2.62579
rik = 1.516 -1.516 -1.516
dik = 2.62579
u3jik = -0.000407407
j,k = 435 1
rij = -1.516 -1.516 1.516
dij = 2.62579
rik = -1.516 -1.516 -1.516
dik = 2.62579
u3jik = -0.000407407
j,k = 435 2
rij = -1.516 -1.516 1.516
dij = 2.62579
rik = -3.03201 0 0
dik = 3.03201
u3jik = -0.00311584
j,k = 435 6
rij = -1.516 -1.516 1.516
dij = 2.62579
rik = 0 -3.03201 0
dik = 3.03201
u3jik = -0.00311584
j,k = 198 244
rij = 0 3.03201 0
dij = 3.03201
rik = 1.516 1.516 -1.516
dik = 2.62579
u3jik = -0.00311584
j,k = 198 199
rij = 0 3.03201 0
dij = 3.03201
rik = -1.516 1.516 -1.516
dik = 2.62579
u3jik = -0.00311584
j,k = 198 91
rij = 0 3.03201 0
dij = 3.03201
rik = 3.03201 0 0
dik = 3.03201
u3jik = -0
j,k = 198 92
rij = 0 3.03201 0
dij = 3.03201
rik = 1.516 -1.516 -1.516
dik = 2.62579
u3jik = -0.00311584
j,k = 198 1
rij = 0 3.03201 0
dij = 3.03201
rik = -1.516 -1.516 -1.516
dik = 2.62579
u3jik = -0.00311584
j,k = 198 2
rij = 0 3.03201 0
dij = 3.03201
rik = -3.03201 0 0
dik = 3.03201
u3jik = -0
j,k = 198 6
rij = 0 3.03201 0
dij = 3.03201
rik = 0 -3.03201 0
dik = 3.03201
u3jik = -0.0238298
j,k = 244 199
rij = 1.516 1.516 -1.516
dij = 2.62579
rik = -1.516 1.516 -1.516
dik = 2.62579
u3jik = -0.000407407
j,k = 244 91
rij = 1.516 1.516 -1.516
dij = 2.62579
rik = 3.03201 0 0
dik = 3.03201
u3jik = -0.00311584
j,k = 244 92
rij = 1.516 1.516 -1.516
dij = 2.62579
rik = 1.516 -1.516 -1.516
dik = 2.62579
u3jik = -0.000407407
j,k = 244 1
rij = 1.516 1.516 -1.516
dij = 2.62579
rik = -1.516 -1.516 -1.516
dik = 2.62579
u3jik = -0.000407407
j,k = 244 2
rij = 1.516 1.516 -1.516
dij = 2.62579
rik = -3.03201 0 0
dik = 3.03201
u3jik = -0.00311584
j,k = 244 6
rij = 1.516 1.516 -1.516
dij = 2.62579
rik = 0 -3.03201 0
dik = 3.03201
u3jik = -0.00311584
j,k = 199 91
rij = -1.516 1.516 -1.516
dij = 2.62579
rik = 3.03201 0 0
dik = 3.03201
u3jik = -0.00311584
j,k = 199 92
rij = -1.516 1.516 -1.516
dij = 2.62579
rik = 1.516 -1.516 -1.516
dik = 2.62579
u3jik = -0.000407407
j,k = 199 1
rij = -1.516 1.516 -1.516
dij = 2.62579
rik = -1.516 -1.516 -1.516
dik = 2.62579
u3jik = -0.000407407
j,k = 199 2
rij = -1.516 1.516 -1.516
dij = 2.62579
rik = -3.03201 0 0
dik = 3.03201
u3jik = -0.00311584
j,k = 199 6
rij = -1.516 1.516 -1.516
dij = 2.62579
rik = 0 -3.03201 0
dik = 3.03201
u3jik = -0.00311584
j,k = 91 92
rij = 3.03201 0 0
dij = 3.03201
rik = 1.516 -1.516 -1.516
dik = 2.62579
u3jik = -0.00311584
j,k = 91 1
rij = 3.03201 0 0
dij = 3.03201
rik = -1.516 -1.516 -1.516
dik = 2.62579
u3jik = -0.00311584
j,k = 91 2
rij = 3.03201 0 0
dij = 3.03201
rik = -3.03201 0 0
dik = 3.03201
u3jik = -0.0238298
j,k = 91 6
rij = 3.03201 0 0
dij = 3.03201
rik = 0 -3.03201 0
dik = 3.03201
u3jik = -0
j,k = 92 1
rij = 1.516 -1.516 -1.516
dij = 2.62579
rik = -1.516 -1.516 -1.516
dik = 2.62579
u3jik = -0.000407407
j,k = 92 2
rij = 1.516 -1.516 -1.516
dij = 2.62579
rik = -3.03201 0 0
dik = 3.03201
u3jik = -0.00311584
j,k = 92 6
rij = 1.516 -1.516 -1.516
dij = 2.62579
rik = 0 -3.03201 0
dik = 3.03201
u3jik = -0.00311584
j,k = 1 2
rij = -1.516 -1.516 -1.516
dij = 2.62579
rik = -3.03201 0 0
dik = 3.03201
u3jik = -0.00311584
j,k = 1 6
rij = -1.516 -1.516 -1.516
dij = 2.62579
rik = 0 -3.03201 0
dik = 3.03201
u3jik = -0.00311584
j,k = 2 6
rij = -3.03201 0 0
dij = 3.03201
rik = 0 -3.03201 0
dik = 3.03201
u3jik = -0
Per MPI rank memory allocation (min/avg/max) = 3.463 | 3.463 | 3.463 Mbytes
   Step          Temp          PotEng         v_eper    
         0   0             -236.21168     -4.3742904    
Loop time of 1e-06 on 1 procs for 0 steps with 54 atoms

100.0% CPU use with 1 MPI tasks x no OpenMP threads

MPI task timing breakdown:
Section |  min time  |  avg time  |  max time  |%varavg| %total
---------------------------------------------------------------
Pair    | 0          | 0          | 0          |   0.0 |  0.00
Neigh   | 0          | 0          | 0          |   0.0 |  0.00
Comm    | 0          | 0          | 0          |   0.0 |  0.00
Output  | 0          | 0          | 0          |   0.0 |  0.00
Modify  | 0          | 0          | 0          |   0.0 |  0.00
Other   |            | 1e-06      |            |       |100.00

Nlocal:             54 ave          54 max          54 min
Histogram: 1 0 0 0 0 0 0 0 0 0
Nghost:            505 ave         505 max         505 min
Histogram: 1 0 0 0 0 0 0 0 0 0
Neighs:           1566 ave        1566 max        1566 min
Histogram: 1 0 0 0 0 0 0 0 0 0
FullNghs:          756 ave         756 max         756 min
Histogram: 1 0 0 0 0 0 0 0 0 0

Total # of neighbors = 1566
Ave neighs/atom = 29
Neighbor list builds = 0
Dangerous builds not checked
-4.37429044002855
Total wall time: 0:00:00
